 +-------------------------------------------------+
 |                                                 |
 |      CCC   AA    SSS  TTTTT  EEEEE  PPPP        |
 |     C     A  A  S       T    E      P   P       |
 |     C     AAAA   SS     T    EEE    PPPP        |
 |     C     A  A     S    T    E      P           |
 |      CCC  A  A  SSS     T    EEEEE  P           |
 |                                                 |
 +-------------------------------------------------+
 |                                                 |
 | Welcome to Academic Release CASTEP version 24.1 |
 | Ab Initio Total Energy Program                  |
 |                                                 |
 | Authors:                                        |
 | M. Segall, M. Probert, C. Pickard, P. Hasnip,   |
 | S. Clark, K. Refson, J. R. Yates,               |
 | A. Bartok-Partay, M. Payne                      |
 |                                                 |
 | Contributors:                                   |
 | P. Lindan, P. Haynes, J. White, V. Milman,      |
 | N. Govind, M. Gibson, P. Tulip, V. Cocula,      |
 | B. Montanari, D. Quigley, M. Glover,            |
 | L. Bernasconi, A. Perlov, M. Plummer,           |
 | E. McNellis, J. Meyer, J. Gale, D. Jochym       |
 | J. Aarons, B. Walker, R. Gillen, D. Jones       |
 | T. Green, I. J. Bush, C. J. Armstrong,          |
 | E. J. Higgins, E. L. Brown, M. S. McFly,        |
 | J. Wilkins, B-C. Shih, P. J. P. Byrne,          |
 | R. J. Maurer, J. C. Womack, J. Dziedzic,        |
 | L. LeBlanc, T. K. Stenczel, J. Kermode,         |
 | S. Sturniolo, B. Shi, B. Durham, M. Evans,      |
 | M. J. Smith, A. Tamerus, Z. Hawkhead,           |
 | V. Ravindran, T. Hollins, S. A. Joyce,          |
 | R. T. Strong, A. M. Reilly                      |
 |                                                 |
 | Copyright (c) 2000 - 2023                       |
 |                                                 |
 |     Distributed under license from Cambridge    |
 |     Enterprise for academic use only.           |
 |                                                 |
 | Please cite                                     |
 |                                                 |
 |     "First principles methods using CASTEP"     |
 |                                                 |
 |         Zeitschrift fuer Kristallographie       |
 |           220(5-6) pp. 567-570 (2005)           |
 |                                                 |
 | S. J. Clark, M. D. Segall, C. J. Pickard,       |
 | P. J. Hasnip, M. J. Probert, K. Refson,         |
 | M. C. Payne                                     |
 |                                                 |
 |       in all publications arising from          |
 |              your use of CASTEP                 |
 |                                                 |
 +-------------------------------------------------+
 |                                                 |
 |              http://www.castep.org              |
 |                                                 |
 +-------------------------------------------------+



 Compiled for  GNU 12.2.1 on 14-04-2023 15:14:41
 from code version 2c6c6d262 update-jenkins Fri Apr 14 15:13:22 2023 +0100
 Compiler: GNU Fortran 12.2.1; Optimisation: FAST
 Comms   : Open MPI v4.1.4
 MATHLIBS: blas (LAPACK version 3.11.0)
 FFT Lib : fftw3 version fftw-3.3.10-sse2-avx
 Fundamental constants values: CODATA 2018

 Run started: Tue, 30 May 2023 11:57:18 +0100
 Warning in parameters_read: presetting of magnetic moments on atoms cannot be guaranteed when metals_method /= density mixing

 Atomic calculation performed for Mn: 1s2 2s2 2p6 3s2 3p6 3d5 4s2

 Converged in 96 iterations to an ae energy of -31436.261 eV

   ============================================================                
   | Pseudopotential Report - Date of generation 30-05-2023   |                
   ------------------------------------------------------------                
   | Element: Mn Ionic charge: 15.00 Level of theory: LDA     |                
   | Atomic Solver: Koelling-Harmon                           |                
   |                                                          |                
   |               Reference Electronic Structure             |                
   |         Orbital         Occupation         Energy        |                
   |          3s1/2            2.000           -3.132         |                
   |          3p1/2            2.000           -2.001         |                
   |          3p1/2            2.000           -2.001         |                
   |          3d3/2            2.000           -0.258         |                
   |          3d3/2            2.000           -0.258         |                
   |          4s1/2            2.000           -0.194         |                
   |                                                          |                
   |                 Pseudopotential Definition               |                
   |      Beta    l   2j     e      Rc     scheme   norm      |                
   |        1     0    1   -3.132   1.803     qc     0        |                
   |        2     0    1   -0.194   1.803     qc     0        |                
   |        3     0    1    0.250   1.803     qc     0        |                
   |        4     1    3   -2.001   1.803     qc     0        |                
   |        5     1    1   -2.001   1.803     qc     0        |                
   |        6     1    3    0.250   1.803     qc     0        |                
   |        7     1    1    0.250   1.803     qc     0        |                
   |        8     2    5   -0.258   1.803     qc     0        |                
   |        9     2    3   -0.258   1.803     qc     0        |                
   |       10     2    5    0.250   1.803     qc     0        |                
   |       11     2    3    0.250   1.803     qc     0        |                
   |       loc    3    0    0.000   1.803     pn     0        |                
   |                                                          |                
   | Augmentation charge Rinner = 0.600                       |                
   | Partial core correction Rc = 0.600                       |                
   ------------------------------------------------------------                
   | "3|1.8|1.8|0.6|12|14|16|30U:40:31:32(qc=7)"              |                
   ------------------------------------------------------------                
   |      Author: Chris J. Pickard, Cambridge University      |                
   ============================================================                

 Pseudo atomic calculation performed for Mn 3s2 3p6 3d5 4s2

 Converged in 38 iterations to a total energy of -2901.7207 eV
 Calculation not parallelised.

 ************************************ Title ************************************
 

 ***************************** General Parameters ******************************
  
 output verbosity                               : normal  (1)
 write checkpoint data to                       : beta-mn.check
 type of calculation                            : single point energy
 stress calculation                             : off
 density difference calculation                 : off
 electron localisation func (ELF) calculation   : off
 Hirshfeld analysis                             : off
 polarisation (Berry phase) analysis            : off
 molecular orbital projected DOS                : off
 deltaSCF calculation                           : off
 unlimited duration calculation
 timing information                             : on
 memory usage estimate                          : on
 write extra output files                       : on
 write final potential to formatted file        : off
 write final density to formatted file          : off
 write BibTeX reference list                    : off
 write OTFG pseudopotential files               : on
 write electrostatic potential file             : on
 write bands file                               : on
 checkpoint writing                             : both castep_bin and check files
  
 output         length unit                     : A
 output           mass unit                     : amu
 output           time unit                     : ps
 output         charge unit                     : e
 output           spin unit                     : hbar/2
 output         energy unit                     : eV
 output          force unit                     : eV/A
 output       velocity unit                     : A/ps
 output       pressure unit                     : GPa
 output     inv_length unit                     : 1/A
 output      frequency unit                     : cm-1
 output force constant unit                     : eV/A**2
 output         volume unit                     : A**3
 output   IR intensity unit                     : (D/A)**2/amu
 output         dipole unit                     : D
 output         efield unit                     : eV/A/e
 output        entropy unit                     : J/mol/K
 output    efield chi2 unit                     : pm/V
  
 wavefunctions paging                           : none
 random number generator seed                   :  115718445
 data distribution                              : optimal for this architecture
 optimization strategy                          : maximize speed(+++)

 *********************** Exchange-Correlation Parameters ***********************
  
 using functional                               : Local Density Approximation
 relativistic treatment                         : Koelling-Harmon
 DFT+D: Semi-empirical dispersion correction    : off

 ************************* Pseudopotential Parameters **************************
  
 pseudopotential representation                 : reciprocal space
 <beta|phi> representation                      : reciprocal space
 spin-orbit coupling                            : on

 **************************** Basis Set Parameters *****************************
  
 plane wave basis set cut-off                   :   500.0000   eV
 size of standard grid                          :     1.7500
 size of   fine   gmax                          :    20.0476   1/A
 finite basis set correction                    : none

 **************************** Electronic Parameters ****************************
  
 number of  electrons                           :  300.0    
 net charge of system                           :  0.000    
 treating system as non-collinear spin
 number of bands                                :        420
 electron temperature                           :     0.0000   K

 ********************* Electronic Minimization Parameters **********************
  
 Method: Treating system as metallic with ensemble DFT treatment of electrons,
         and number of  SD  steps               :          1
         and number of  CG  steps               :          4
  
 total energy / atom convergence tol.           : 0.1000E-02   eV
 max force / atom convergence tol.              : ignored
 convergence tolerance window                   :          3   cycles
 max. number of SCF cycles                      :         50
 number of fixed-spin iterations                :         10
 smearing scheme                                : Gaussian
 smearing width                                 : 0.2000       eV
 Fermi energy convergence tolerance             : 0.2721E-13   eV
 number of occupancy cycles                     :          6
 periodic dipole correction                     : NONE

 *******************************************************************************
  

                           -------------------------------
                                      Unit Cell
                           -------------------------------
        Real Lattice(A)                      Reciprocal Lattice(1/A)
     6.3145000     0.0000000     0.0000000        0.995040828   0.000000000   0.000000000
     0.0000000     6.3145000     0.0000000        0.000000000   0.995040828   0.000000000
     0.0000000     0.0000000     6.3145000        0.000000000   0.000000000   0.995040828

                       Lattice parameters(A)       Cell Angles
                    a =      6.314500          alpha =   90.000000
                    b =      6.314500          beta  =   90.000000
                    c =      6.314500          gamma =   90.000000

                       Current cell volume =           251.777492       A**3
                                   density =             4.364016   AMU/A**3
                                           =             7.246619     g/cm^3

                           -------------------------------
                                     Cell Contents
                           -------------------------------
                         Total number of ions in cell =   20
                      Total number of species in cell =    1
                        Max number of any one species =   20

            xxxxxxxxxxxxxxxxxxxxxxxxxxxxxxxxxxxxxxxxxxxxxxxxxxxxxxxxxxxx
            x  Element    Atom        Fractional coordinates of atoms  x
            x            Number           u          v          w      x
            x----------------------------------------------------------x
            x  Mn           1         0.061000   0.061000   0.061000   x 
            x  Mn           2         0.811000   0.311000   0.189000   x 
            x  Mn           3         0.939000   0.561000   0.439000   x 
            x  Mn           4         0.439000   0.939000   0.561000   x 
            x  Mn           5         0.561000   0.439000   0.939000   x 
            x  Mn           6         0.311000   0.189000   0.811000   x 
            x  Mn           7         0.689000   0.689000   0.689000   x 
            x  Mn           8         0.189000   0.811000   0.311000   x 
            x  Mn           9         0.125000   0.206000   0.456000   x 
            x  Mn          10         0.875000   0.706000   0.044000   x 
            x  Mn          11         0.544000   0.625000   0.294000   x 
            x  Mn          12         0.294000   0.544000   0.625000   x 
            x  Mn          13         0.456000   0.125000   0.206000   x 
            x  Mn          14         0.206000   0.456000   0.125000   x 
            x  Mn          15         0.625000   0.294000   0.544000   x 
            x  Mn          16         0.794000   0.956000   0.375000   x 
            x  Mn          17         0.375000   0.794000   0.956000   x 
            x  Mn          18         0.044000   0.875000   0.706000   x 
            x  Mn          19         0.956000   0.375000   0.794000   x 
            x  Mn          20         0.706000   0.044000   0.875000   x 
            xxxxxxxxxxxxxxxxxxxxxxxxxxxxxxxxxxxxxxxxxxxxxxxxxxxxxxxxxxxx


                         No user defined ionic velocities

                           -------------------------------
                                   Details of Species
                           -------------------------------

                               Mass of species in AMU
                                    Mn   54.9380500

                          Electric Quadrupole Moment (Barn)
                                    Mn    0.3300000 Isotope 55
         xxxxxxxxxxxxxxxxxxxxxxxxxxxxxxxxxxxxxxxxxxxxxxxxxxxxxxxxxxxxxxxxxxxxxx
         |  Element    Atom         Initial            Initial magnetic       |
         |            Number    spin polarization        moment (uB)     Fix? |
         |--------------------------------------------------------------------|
         | Mn             1         0.166667              2.500       F       |
         | Mn             2         0.166667              2.500       F       |
         | Mn             3         0.166667              2.500       F       |
         | Mn             4         0.166667              2.500       F       |
         | Mn             5         0.166667              2.500       F       |
         | Mn             6         0.166667              2.500       F       |
         | Mn             7         0.166667              2.500       F       |
         | Mn             8         0.166667              2.500       F       |
         | Mn             9         0.166667              2.500       F       |
         | Mn            10         0.166667              2.500       F       |
         | Mn            11         0.166667              2.500       F       |
         | Mn            12         0.166667              2.500       F       |
         | Mn            13         0.166667              2.500       F       |
         | Mn            14         0.166667              2.500       F       |
         | Mn            15         0.166667              2.500       F       |
         | Mn            16         0.166667              2.500       F       |
         | Mn            17         0.166667              2.500       F       |
         | Mn            18         0.166667              2.500       F       |
         | Mn            19         0.166667              2.500       F       |
         | Mn            20         0.166667              2.500       F       |
         xxxxxxxxxxxxxxxxxxxxxxxxxxxxxxxxxxxxxxxxxxxxxxxxxxxxxxxxxxxxxxxxxxxxxx


                          Files used for pseudopotentials:
                                    Mn 3|1.8|1.8|0.6|12|14|16|30U:40:31:32(qc=7)

                           -------------------------------
                              k-Points For BZ Sampling
                           -------------------------------
                       MP grid size for SCF calculation is  4  4  4
                            with an offset of   0.000  0.000  0.000
                       Number of kpoints used =            32

                           -------------------------------
                               Symmetry and Constraints
                           -------------------------------

                      Maximum deviation from symmetry =  0.00000         ANG

                      Number of symmetry operations   =           1
                      Number of ionic constraints     =           3
                      Point group of crystal =     1: C1, 1, 1
                      Space group of crystal =   213: P4_132, P 4bd 2ab 3

             Set iprint > 1 for details on symmetry rotations/translations

                         Centre of mass is constrained
             Set iprint > 1 for details of linear ionic constraints

                         Number of cell constraints= 0
                         Cell constraints are:  1 2 3 4 5 6

                         External pressure/stress (GPa)
                          0.00000   0.00000   0.00000
                                    0.00000   0.00000
                                              0.00000
 
+---------------- MEMORY AND SCRATCH DISK ESTIMATES PER PROCESS --------------+
|                                                     Memory          Disk    |
| Baseline code, static data and system overhead      239.0 MB         0.0 MB |
| BLAS internal memory storage                          0.0 MB         0.0 MB |
| Model and support data                             3776.4 MB         0.0 MB |
| Electronic energy minimisation requirements       15189.3 MB         0.0 MB |
| Force calculation requirements                        9.8 MB         0.0 MB |
|                                               ----------------------------- |
| Approx. total storage required per process        19204.7 MB         0.0 MB |
|                                                                             |
| Requirements will fluctuate during execution and may exceed these estimates |
+-----------------------------------------------------------------------------+
Calculating approximate eigenstates for fixed initial Hamiltonian
Cut-off for approx. calculation is  131.752 eV
 +-------------------------------------------------+
 |                                                 |
 |      CCC   AA    SSS  TTTTT  EEEEE  PPPP        |
 |     C     A  A  S       T    E      P   P       |
 |     C     AAAA   SS     T    EEE    PPPP        |
 |     C     A  A     S    T    E      P           |
 |      CCC  A  A  SSS     T    EEEEE  P           |
 |                                                 |
 +-------------------------------------------------+
 |                                                 |
 | Welcome to Academic Release CASTEP version 24.1 |
 | Ab Initio Total Energy Program                  |
 |                                                 |
 | Authors:                                        |
 | M. Segall, M. Probert, C. Pickard, P. Hasnip,   |
 | S. Clark, K. Refson, J. R. Yates,               |
 | A. Bartok-Partay, M. Payne                      |
 |                                                 |
 | Contributors:                                   |
 | P. Lindan, P. Haynes, J. White, V. Milman,      |
 | N. Govind, M. Gibson, P. Tulip, V. Cocula,      |
 | B. Montanari, D. Quigley, M. Glover,            |
 | L. Bernasconi, A. Perlov, M. Plummer,           |
 | E. McNellis, J. Meyer, J. Gale, D. Jochym       |
 | J. Aarons, B. Walker, R. Gillen, D. Jones       |
 | T. Green, I. J. Bush, C. J. Armstrong,          |
 | E. J. Higgins, E. L. Brown, M. S. McFly,        |
 | J. Wilkins, B-C. Shih, P. J. P. Byrne,          |
 | R. J. Maurer, J. C. Womack, J. Dziedzic,        |
 | L. LeBlanc, T. K. Stenczel, J. Kermode,         |
 | S. Sturniolo, B. Shi, B. Durham, M. Evans,      |
 | M. J. Smith, A. Tamerus, Z. Hawkhead,           |
 | V. Ravindran, T. Hollins, S. A. Joyce,          |
 | R. T. Strong, A. M. Reilly                      |
 |                                                 |
 | Copyright (c) 2000 - 2023                       |
 |                                                 |
 |     Distributed under license from Cambridge    |
 |     Enterprise for academic use only.           |
 |                                                 |
 | Please cite                                     |
 |                                                 |
 |     "First principles methods using CASTEP"     |
 |                                                 |
 |         Zeitschrift fuer Kristallographie       |
 |           220(5-6) pp. 567-570 (2005)           |
 |                                                 |
 | S. J. Clark, M. D. Segall, C. J. Pickard,       |
 | P. J. Hasnip, M. J. Probert, K. Refson,         |
 | M. C. Payne                                     |
 |                                                 |
 |       in all publications arising from          |
 |              your use of CASTEP                 |
 |                                                 |
 +-------------------------------------------------+
 |                                                 |
 |              http://www.castep.org              |
 |                                                 |
 +-------------------------------------------------+



 Compiled for  GNU 12.2.1 on 14-04-2023 15:14:41
 from code version 2c6c6d262 update-jenkins Fri Apr 14 15:13:22 2023 +0100
 Compiler: GNU Fortran 12.2.1; Optimisation: FAST
 Comms   : Open MPI v4.1.4
 MATHLIBS: blas (LAPACK version 3.11.0)
 FFT Lib : fftw3 version fftw-3.3.10-sse2-avx
 Fundamental constants values: CODATA 2018

 Run started: Fri, 14 Jul 2023 19:45:17 +0100

 Atomic calculation performed for Mn: 1s2 2s2 2p6 3s2 3p6 3d5 4s2

 Converged in 96 iterations to an ae energy of -31436.261 eV

   ============================================================                
   | Pseudopotential Report - Date of generation 14-07-2023   |                
   ------------------------------------------------------------                
   | Element: Mn Ionic charge: 15.00 Level of theory: LDA     |                
   | Atomic Solver: Koelling-Harmon                           |                
   |                                                          |                
   |               Reference Electronic Structure             |                
   |         Orbital         Occupation         Energy        |                
   |          3s1/2            2.000           -3.132         |                
   |          3p1/2            2.000           -2.001         |                
   |          3p1/2            2.000           -2.001         |                
   |          3d3/2            2.000           -0.258         |                
   |          3d3/2            2.000           -0.258         |                
   |          4s1/2            2.000           -0.194         |                
   |                                                          |                
   |                 Pseudopotential Definition               |                
   |      Beta    l   2j     e      Rc     scheme   norm      |                
   |        1     0    1   -3.132   1.803     qc     0        |                
   |        2     0    1   -0.194   1.803     qc     0        |                
   |        3     0    1    0.250   1.803     qc     0        |                
   |        4     1    3   -2.001   1.803     qc     0        |                
   |        5     1    1   -2.001   1.803     qc     0        |                
   |        6     1    3    0.250   1.803     qc     0        |                
   |        7     1    1    0.250   1.803     qc     0        |                
   |        8     2    5   -0.258   1.803     qc     0        |                
   |        9     2    3   -0.258   1.803     qc     0        |                
   |       10     2    5    0.250   1.803     qc     0        |                
   |       11     2    3    0.250   1.803     qc     0        |                
   |       loc    3    0    0.000   1.803     pn     0        |                
   |                                                          |                
   | Augmentation charge Rinner = 0.600                       |                
   | Partial core correction Rc = 0.600                       |                
   ------------------------------------------------------------                
   | "3|1.8|1.8|0.6|12|14|16|30U:40:31:32(qc=7)"              |                
   ------------------------------------------------------------                
   |      Author: Chris J. Pickard, Cambridge University      |                
   ============================================================                

 Pseudo atomic calculation performed for Mn 3s2 3p6 3d5 4s2

 Converged in 38 iterations to a total energy of -2901.7207 eV
 Calculation not parallelised.

 ************************************ Title ************************************
 

 ***************************** General Parameters ******************************
  
 output verbosity                               : normal  (1)
 write checkpoint data to                       : beta-mn.check
 type of calculation                            : single point energy
 stress calculation                             : off
 density difference calculation                 : off
 electron localisation func (ELF) calculation   : off
 Hirshfeld analysis                             : off
 polarisation (Berry phase) analysis            : off
 molecular orbital projected DOS                : off
 deltaSCF calculation                           : off
 unlimited duration calculation
 timing information                             : on
 memory usage estimate                          : on
 write extra output files                       : on
 write final potential to formatted file        : off
 write final density to formatted file          : off
 write BibTeX reference list                    : off
 write OTFG pseudopotential files               : on
 write electrostatic potential file             : on
 write bands file                               : on
 checkpoint writing                             : both castep_bin and check files
  
 output         length unit                     : A
 output           mass unit                     : amu
 output           time unit                     : ps
 output         charge unit                     : e
 output           spin unit                     : hbar/2
 output         energy unit                     : eV
 output          force unit                     : eV/A
 output       velocity unit                     : A/ps
 output       pressure unit                     : GPa
 output     inv_length unit                     : 1/A
 output      frequency unit                     : cm-1
 output force constant unit                     : eV/A**2
 output         volume unit                     : A**3
 output   IR intensity unit                     : (D/A)**2/amu
 output         dipole unit                     : D
 output         efield unit                     : eV/A/e
 output        entropy unit                     : J/mol/K
 output    efield chi2 unit                     : pm/V
  
 wavefunctions paging                           : none
 random number generator seed                   :  194517207
 data distribution                              : optimal for this architecture
 optimization strategy                          : maximize speed(+++)

 *********************** Exchange-Correlation Parameters ***********************
  
 using functional                               : Local Density Approximation
 relativistic treatment                         : Koelling-Harmon
 DFT+D: Semi-empirical dispersion correction    : off

 ************************* Pseudopotential Parameters **************************
  
 pseudopotential representation                 : reciprocal space
 <beta|phi> representation                      : reciprocal space
 spin-orbit coupling                            : on

 **************************** Basis Set Parameters *****************************
  
 plane wave basis set cut-off                   :   500.0000   eV
 size of standard grid                          :     1.7500
 size of   fine   gmax                          :    20.0476   1/A
 largest prime factor in FFT                    :          5
 finite basis set correction                    : none

 **************************** Electronic Parameters ****************************
  
 number of  electrons                           :  300.0    
 net charge of system                           :  0.000    
 treating system as non-collinear spin
 number of bands                                :        420

 ********************* Electronic Minimization Parameters **********************
  
 Method: Treating system as metallic with density mixing treatment of electrons,
         and number of  SD  steps               :          1
         and number of  CG  steps               :          4
  
 total energy / atom convergence tol.           : 0.1000E-02   eV
 eigen-energy convergence tolerance             : 0.1000E-05   eV
 max force / atom convergence tol.              : ignored
 convergence tolerance window                   :          3   cycles
 max. number of SCF cycles                      :         50
 number of fixed-spin iterations                :         10
 smearing scheme                                : Gaussian
 smearing width                                 : 0.2000       eV
 Fermi energy convergence tolerance             : 0.2721E-13   eV
 periodic dipole correction                     : NONE

 ************************** Density Mixing Parameters **************************
  
 density-mixing scheme                          : Broyden
 max. length of mixing history                  :         20
 charge density mixing amplitude                : 0.8000    
   spin density mixing amplitude                : 0.5000    
 cut-off energy for mixing                      :  500.0       eV
 charge density mixing g-vector                 :  1.500       1/A
   spin density mixing g-vector                 :  1.500       1/A

 ******************************* Developer Code ********************************
  
 improve_wvfn=off

 *******************************************************************************
  

                           -------------------------------
                                      Unit Cell
                           -------------------------------
        Real Lattice(A)                      Reciprocal Lattice(1/A)
     6.3145000     0.0000000     0.0000000        0.995040828   0.000000000   0.000000000
     0.0000000     6.3145000     0.0000000        0.000000000   0.995040828   0.000000000
     0.0000000     0.0000000     6.3145000        0.000000000   0.000000000   0.995040828

                       Lattice parameters(A)       Cell Angles
                    a =      6.314500          alpha =   90.000000
                    b =      6.314500          beta  =   90.000000
                    c =      6.314500          gamma =   90.000000

                       Current cell volume =           251.777492       A**3
                                   density =             4.364016   AMU/A**3
                                           =             7.246619     g/cm^3

                           -------------------------------
                                     Cell Contents
                           -------------------------------
                         Total number of ions in cell =   20
                      Total number of species in cell =    1
                        Max number of any one species =   20

            xxxxxxxxxxxxxxxxxxxxxxxxxxxxxxxxxxxxxxxxxxxxxxxxxxxxxxxxxxxx
            x  Element    Atom        Fractional coordinates of atoms  x
            x            Number           u          v          w      x
            x----------------------------------------------------------x
            x  Mn           1         0.061000   0.061000   0.061000   x 
            x  Mn           2         0.811000   0.311000   0.189000   x 
            x  Mn           3         0.939000   0.561000   0.439000   x 
            x  Mn           4         0.439000   0.939000   0.561000   x 
            x  Mn           5         0.561000   0.439000   0.939000   x 
            x  Mn           6         0.311000   0.189000   0.811000   x 
            x  Mn           7         0.689000   0.689000   0.689000   x 
            x  Mn           8         0.189000   0.811000   0.311000   x 
            x  Mn           9         0.125000   0.206000   0.456000   x 
            x  Mn          10         0.875000   0.706000   0.044000   x 
            x  Mn          11         0.544000   0.625000   0.294000   x 
            x  Mn          12         0.294000   0.544000   0.625000   x 
            x  Mn          13         0.456000   0.125000   0.206000   x 
            x  Mn          14         0.206000   0.456000   0.125000   x 
            x  Mn          15         0.625000   0.294000   0.544000   x 
            x  Mn          16         0.794000   0.956000   0.375000   x 
            x  Mn          17         0.375000   0.794000   0.956000   x 
            x  Mn          18         0.044000   0.875000   0.706000   x 
            x  Mn          19         0.956000   0.375000   0.794000   x 
            x  Mn          20         0.706000   0.044000   0.875000   x 
            xxxxxxxxxxxxxxxxxxxxxxxxxxxxxxxxxxxxxxxxxxxxxxxxxxxxxxxxxxxx


                         No user defined ionic velocities

                           -------------------------------
                                   Details of Species
                           -------------------------------

                               Mass of species in AMU
                                    Mn   54.9380500

                          Electric Quadrupole Moment (Barn)
                                    Mn    0.3300000 Isotope 55
         xxxxxxxxxxxxxxxxxxxxxxxxxxxxxxxxxxxxxxxxxxxxxxxxxxxxxxxxxxxxxxxxxxxxxx
         |  Element    Atom         Initial            Initial magnetic       |
         |            Number    spin polarization        moment (uB)     Fix? |
         |--------------------------------------------------------------------|
         | Mn             1         0.166667              2.500       F       |
         | Mn             2         0.166667              2.500       F       |
         | Mn             3         0.166667              2.500       F       |
         | Mn             4         0.166667              2.500       F       |
         | Mn             5         0.166667              2.500       F       |
         | Mn             6         0.166667              2.500       F       |
         | Mn             7         0.166667              2.500       F       |
         | Mn             8         0.166667              2.500       F       |
         | Mn             9         0.166667              2.500       F       |
         | Mn            10         0.166667              2.500       F       |
         | Mn            11         0.166667              2.500       F       |
         | Mn            12         0.166667              2.500       F       |
         | Mn            13         0.166667              2.500       F       |
         | Mn            14         0.166667              2.500       F       |
         | Mn            15         0.166667              2.500       F       |
         | Mn            16         0.166667              2.500       F       |
         | Mn            17         0.166667              2.500       F       |
         | Mn            18         0.166667              2.500       F       |
         | Mn            19         0.166667              2.500       F       |
         | Mn            20         0.166667              2.500       F       |
         xxxxxxxxxxxxxxxxxxxxxxxxxxxxxxxxxxxxxxxxxxxxxxxxxxxxxxxxxxxxxxxxxxxxxx


                          Files used for pseudopotentials:
                                    Mn 3|1.8|1.8|0.6|12|14|16|30U:40:31:32(qc=7)

                           -------------------------------
                              k-Points For BZ Sampling
                           -------------------------------
                       MP grid size for SCF calculation is  4  4  4
                            with an offset of   0.000  0.000  0.000
                       Number of kpoints used =            32

                           -------------------------------
                               Symmetry and Constraints
                           -------------------------------

                      Maximum deviation from symmetry =  0.00000         ANG

                      Number of symmetry operations   =           1
                      Number of ionic constraints     =           3
                      Point group of crystal =     1: C1, 1, 1
                      Space group of crystal =   213: P4_132, P 4bd 2ab 3

             Set iprint > 1 for details on symmetry rotations/translations

                         Centre of mass is constrained
             Set iprint > 1 for details of linear ionic constraints

                         Number of cell constraints= 0
                         Cell constraints are:  1 2 3 4 5 6

                         External pressure/stress (GPa)
                          0.00000   0.00000   0.00000
                                    0.00000   0.00000
                                              0.00000
 
+---------------- MEMORY AND SCRATCH DISK ESTIMATES PER PROCESS --------------+
|                                                     Memory          Disk    |
| Baseline code, static data and system overhead      239.0 MB         0.0 MB |
| BLAS internal memory storage                          0.0 MB         0.0 MB |
| Model and support data                             3780.5 MB         0.0 MB |
| Electronic energy minimisation requirements        6100.6 MB         0.0 MB |
| Force calculation requirements                        9.8 MB         0.0 MB |
|                                               ----------------------------- |
| Approx. total storage required per process        10120.1 MB         0.0 MB |
|                                                                             |
| Requirements will fluctuate during execution and may exceed these estimates |
+-----------------------------------------------------------------------------+
Calculating approximate eigenstates for fixed initial Hamiltonian
Cut-off for approx. calculation is  131.752 eV
