 +-------------------------------------------------+
 |                                                 |
 |      CCC   AA    SSS  TTTTT  EEEEE  PPPP        |
 |     C     A  A  S       T    E      P   P       |
 |     C     AAAA   SS     T    EEE    PPPP        |
 |     C     A  A     S    T    E      P           |
 |      CCC  A  A  SSS     T    EEEEE  P           |
 |                                                 |
 +-------------------------------------------------+
 |                                                 |
 | Welcome to Academic Release CASTEP version 25.1 |
 | Ab Initio Total Energy Program                  |
 |                                                 |
 | Authors:                                        |
 | M. Segall, M. Probert, C. Pickard, P. Hasnip,   |
 | S. Clark, K. Refson, J. R. Yates,               |
 | A. Bartok-Partay, M. Payne                      |
 |                                                 |
 | Contributors:                                   |
 | P. Lindan, P. Haynes, J. White, V. Milman,      |
 | N. Govind, M. Gibson, P. Tulip, V. Cocula,      |
 | B. Montanari, D. Quigley, M. Glover,            |
 | L. Bernasconi, A. Perlov, M. Plummer,           |
 | E. McNellis, J. Meyer, J. Gale, D. Jochym       |
 | J. Aarons, B. Walker, R. Gillen, D. Jones       |
 | T. Green, I. J. Bush, C. J. Armstrong,          |
 | E. J. Higgins, E. L. Brown, M. S. McFly,        |
 | J. Wilkins, B-C. Shih, P. J. P. Byrne,          |
 | R. J. Maurer, J. C. Womack, J. Dziedzic,        |
 | L. LeBlanc, T. K. Stenczel, J. Kermode,         |
 | S. Sturniolo, B. Shi, B. Durham, M. Evans,      |
 | M. J. Smith, A. Tamerus, Z. Hawkhead,           |
 | V. Ravindran, T. Hollins, S. A. Joyce,          |
 | R. T. Strong, A. M. Reilly, S. J. Donaldson     |
 |                                                 |
 | Copyright (c) 2000 - 2024                       |
 |                                                 |
 |     Distributed under license from Cambridge    |
 |     Enterprise for academic use only.           |
 |                                                 |
 | Please cite                                     |
 |                                                 |
 |     "First principles methods using CASTEP"     |
 |                                                 |
 |         Zeitschrift fuer Kristallographie       |
 |           220(5-6) pp. 567-570 (2005)           |
 |                                                 |
 | S. J. Clark, M. D. Segall, C. J. Pickard,       |
 | P. J. Hasnip, M. J. Probert, K. Refson,         |
 | M. C. Payne                                     |
 |                                                 |
 |       in all publications arising from          |
 |              your use of CASTEP                 |
 |                                                 |
 +-------------------------------------------------+
 |                                                 |
 |              http://www.castep.org              |
 |                                                 |
 +-------------------------------------------------+



 Compiled for  GNU 13.2.1 on 28-03-2024 21:47:54
 from code version b6faa46f6 default Wed Mar 27 12:49:00 2024 +0000
 Compiler: GNU Fortran 13.2.1; Optimisation: FAST
 Comms   : Open MPI v5.0.2
 MATHLIBS: blas (LAPACK version 3.12.0)
 FFT Lib : fftw3 version fftw-3.3.10-sse2-avx
 Fundamental constants values: CODATA 2018

 Run started: Thu, 01 May 2025 17:04:56 +0100

 Atomic calculation performed for Ar: 1s2 2s2 2p6 3s2 3p6

 Converged in 59 iterations to an ae energy of -14362.357 eV

   ============================================================
   | Pseudopotential Report - Date of generation  1-05-2025   |
   ------------------------------------------------------------
   | Element: Ar Ionic charge:  8.00 Level of theory: LDA     |
   | Atomic Solver: Koelling-Harmon                           |
   |                                                          |
   |               Reference Electronic Structure             |
   |         Orbital         Occupation         Energy        |
   |            3s              2.000           -0.892        |
   |            3p              6.000           -0.382        |
   |                                                          |
   |                 Pseudopotential Definition               |
   |        Beta     l      e      Rc     scheme   norm       |
   |          1      0   -0.892   1.597     qc      0         |
   |          2      0    0.250   1.597     qc      0         |
   |          3      1   -0.382   1.597     qc      0         |
   |          4      1    0.250   1.597     qc      0         |
   |         loc     2    0.000   1.597     pn      0         |
   |                                                          |
   | Augmentation charge Rinner = 1.116                       |
   | Partial core correction Rc = 1.116                       |
   ------------------------------------------------------------
   | "2|1.6|7|8|9|30:31"                                      |
   ------------------------------------------------------------
   |      Author: Chris J. Pickard, Cambridge University      |
   ============================================================

 Pseudo atomic calculation performed for Ar 3s2 3p6

 Converged in 18 iterations to a total energy of -583.0922 eV
 Calculation not parallelised.

 ************************************ Title ************************************


 ***************************** General Parameters ******************************

 output verbosity                               : normal  (1)
 write checkpoint data to                       : pair-pot-lj.check
 type of calculation                            : molecular dynamics
 stress calculation                             : off
 density difference calculation                 : off
 electron localisation func (ELF) calculation   : off
 Hirshfeld analysis                             : off
 polarisation (Berry phase) analysis            : off
 molecular orbital projected DOS                : off
 deltaSCF calculation                           : off
 unlimited duration calculation
 timing information                             : on
 memory usage estimate                          : on
 write extra output files                       : on
 write final potential to formatted file        : off
 write final density to formatted file          : off
 write BibTeX reference list                    : off
 write OTFG pseudopotential files               : on
 write electrostatic potential file             : on
 write bands file                               : on
 checkpoint writing                             : off

 output         length unit                     : A
 output           mass unit                     : amu
 output           time unit                     : ps
 output         charge unit                     : e
 output           spin unit                     : hbar/2
 output         energy unit                     : eV
 output          force unit                     : eV/A
 output       velocity unit                     : A/ps
 output       pressure unit                     : GPa
 output     inv_length unit                     : 1/A
 output      frequency unit                     : cm-1
 output force constant unit                     : eV/A**2
 output         volume unit                     : A**3
 output   IR intensity unit                     : (D/A)**2/amu
 output         dipole unit                     : D
 output         efield unit                     : eV/A/e
 output        entropy unit                     : J/mol/K
 output    efield chi2 unit                     : pm/V

 wavefunctions paging                           : none
 random number generator seed                   :  170456460
 data distribution                              : optimal for this architecture
 optimization strategy                          : balance speed and memory

 *********************** Exchange-Correlation Parameters ***********************

 using functional                               : Perdew-Zunger Local Density Approximation
 relativistic treatment                         : Koelling-Harmon
 DFT+D: Semi-empirical dispersion correction    : off

 ************************* Pseudopotential Parameters **************************

 pseudopotential representation                 : reciprocal space
 <beta|phi> representation                      : reciprocal space
 spin-orbit coupling                            : off

 **************************** Basis Set Parameters *****************************

 plane wave basis set cut-off                   :   100.0000   eV
 size of standard grid                          :     2.0000
 size of   fine   gmax                          :    10.2463   1/A
 largest prime factor in FFT                    :          5
 finite basis set correction                    : none

 **************************** Electronic Parameters ****************************

 number of  electrons                           :  2.000
 net charge of system                           :  0.000
 treating system as non-spin-polarized
 number of bands                                :        480

 ********************* Electronic Minimization Parameters **********************

 Method: Treating system as metallic with density mixing treatment of electrons,
         and number of  SD  steps               :          1
         and number of  CG  steps               :          4

 total energy / atom convergence tol.           : 0.1000E-05   eV
 eigen-energy convergence tolerance             : 0.2500E-06   eV
 max force / atom convergence tol.              : ignored
 convergence tolerance window                   :          3   cycles
 max. number of SCF cycles                      :        100
 number of fixed-spin iterations                :         10
 smearing scheme                                : Gaussian
 smearing width                                 : 0.2000       eV
 Fermi energy convergence tolerance             : 0.2721E-13   eV
 periodic dipole correction                     : NONE

 ************************** Density Mixing Parameters **************************

 density-mixing scheme                          : Pulay
 max. length of mixing history                  :         20
 charge density mixing amplitude                : 0.2000
 cut-off energy for mixing                      :  100.0       eV
 charge density mixing g-vector                 :  1.500       1/A

 *********************** Population Analysis Parameters ************************

 Population analysis with cutoff                :  3.000       A
 Population analysis output                     : summary only

 ************************ Molecular Dynamics Parameters ************************

 ensemble                                       : NVT
 temperature                                    :  100.0       K
 using                                          : Langevin thermostat
 with characteristic ionic time                 : 0.5000E-01   ps
 path integral MD                               : OFF
 time step                                      : 0.5000E-02   ps
 number of MD steps                             :         10
 ab initio properties sampled every             :          5   MD steps
 enhanced equilibration method                  : NONE
 using best-fit first order extrapolation for wavefunctions and charge density
 backup results every                           :          5   steps

 MD SCF energy / atom convergence tol.          : 0.1000E-05   eV
 MD SCF eigenenergies tolerance                 : 0.2500E-06   eV
 MD SCF convergence tolerance window            :          3   cycles
 write MD trajectory file                       : on

 ******************************* Developer Code ********************************

 PP=T
 PP: LJ=T LJ_EPS_Ar=120. LJ_SIG_Ar=0.3405 :ENDPP

 *******************************************************************************


                           -------------------------------
                                      Unit Cell
                           -------------------------------
        Real Lattice(A)                      Reciprocal Lattice(1/A)
    17.3952970     0.0000000     0.0000000        0.361200232   0.000000000   0.000000000
     0.0000000    17.3952970     0.0000000        0.000000000   0.361200232   0.000000000
     0.0000000     0.0000000    17.3952970        0.000000000   0.000000000   0.361200232

                       Lattice parameters(A)       Cell Angles
                    a =     17.395297          alpha =   90.000000
                    b =     17.395297          beta  =   90.000000
                    c =     17.395297          gamma =   90.000000

                       Current cell volume =          5263.753514       A**3
                                   density =             0.758926   AMU/A**3
                                           =             1.260226     g/cm^3

                           -------------------------------
                                     Cell Contents
                           -------------------------------
                         Total number of ions in cell =  100
                      Total number of species in cell =    1
                        Max number of any one species =  100

            xxxxxxxxxxxxxxxxxxxxxxxxxxxxxxxxxxxxxxxxxxxxxxxxxxxxxxxxxxxx
            x  Element    Atom        Fractional coordinates of atoms  x
            x            Number           u          v          w      x
            x----------------------------------------------------------x
            x  Ar           1         0.231325   0.129759   0.142367   x
            x  Ar           2         0.246742   0.042652  -0.088655   x
            x  Ar           3         0.047965   0.281388   0.289269   x
            x  Ar           4        -0.453918  -0.052587  -0.010711   x
            x  Ar           5        -0.340386  -0.073584   0.340242   x
            xxxxxxxxxxxxxxxxxxxxxxxxxxxxxxxxxxxxxxxxxxxxxxxxxxxxxxxxxxxx


                         No user defined ionic velocities

                           -------------------------------
                                   Details of Species
                           -------------------------------

                               Mass of species in AMU
                                    Ar   39.9480000

                          Electric Quadrupole Moment (Barn)
                                    Ar    1.0000000 No Isotope Defined

                          Files used for pseudopotentials:
                                    Ar 2|1.6|7|8|9|30:31

                           -------------------------------
                              k-Points For BZ Sampling
                           -------------------------------
                       MP grid size for SCF calculation is  1  1  1
                            with an offset of   0.000  0.000  0.000
                       Number of kpoints used =             1

                           -------------------------------
                               Symmetry and Constraints
                           -------------------------------

                      Maximum deviation from symmetry =  0.00000         ANG

                      Number of symmetry operations   =           1
                      Number of ionic constraints     =           3
                      Point group of crystal =     1: C1, 1, 1
                      Space group of crystal =     1: P1, P 1

             Set iprint > 1 for details on symmetry rotations/translations

                         Centre of mass is constrained
             Set iprint > 1 for details of linear ionic constraints

                         Number of cell constraints= 6
                         Cell constraints are:  0 0 0 0 0 0

                         External pressure/stress (GPa)
                          0.00000   0.00000   0.00000
                                    0.00000   0.00000
                                              0.00000

   ************************     PairParams     ************************
   *                                                                  *
   *                               Two Body                           *
   *                               Ar                                 *
   *    r                      8.5125000000                  A        * <--   LJ
   *    e                      0.0103407999                  eV       * <--   LJ
   *    s                      0.3405000000                  A        * <--   LJ
   ********************************************************************

Final energy = -0.9151337939619E-005eV
 Starting MD

            xxxxxxxxxxxxxxxxxxxxxxxxxxxxxxxxxxxxxxxxxxxxxxxxxxxxxxxxxxxxxx
            x                                               MD Data:     x
            x                                                            x
            x              time :      0.000000                   ps     x
            x                                                            x
            x   Potential Energy:     -0.000009                   eV     x
            x   Kinetic   Energy:      1.279674                   eV     x
            x   Total     Energy:      1.279665                   eV     x
            x   Hamilt    Energy:      1.279665                   eV     x
            x                                                            x
            x        Temperature:    100.000000                    K     x
            x      T/=0 Pressure:      0.000000                  GPa     x
            xxxxxxxxxxxxxxxxxxxxxxxxxxxxxxxxxxxxxxxxxxxxxxxxxxxxxxxxxxxxxx


================================================================================
 Starting MD iteration          1 ...
================================================================================

+---------------- MEMORY AND SCRATCH DISK ESTIMATES PER PROCESS --------------+
|                                                     Memory          Disk    |
| Model and support data                              321.5 MB         0.0 MB |
| Molecular Dynamics requirements                     351.6 MB         0.0 MB |
|                                               ----------------------------- |
| Approx. total storage required per process          673.2 MB         0.0 MB |
|                                                                             |
| Requirements will fluctuate during execution and may exceed these estimates |
+-----------------------------------------------------------------------------+


            xxxxxxxxxxxxxxxxxxxxxxxxxxxxxxxxxxxxxxxxxxxxxxxxxxxxxxxxxxxxxx
            x                                               MD Data:     x
            x                                                            x
            x              time :      0.005000                   ps     x
            x                                                            x
            x   Potential Energy:     -0.000009                   eV     x
            x   Kinetic   Energy:      1.096930                   eV     x
            x   Total     Energy:      1.096920                   eV     x
            x   Hamilt    Energy:      1.096920                   eV     x
            x                                                            x
            x        Temperature:     85.719456                    K     x
            x      T/=0 Pressure:      0.000000                  GPa     x
            xxxxxxxxxxxxxxxxxxxxxxxxxxxxxxxxxxxxxxxxxxxxxxxxxxxxxxxxxxxxxx


--------------------------------------------------------------------------------
 ... finished MD iteration          1

================================================================================
 Starting MD iteration          2 ...
================================================================================

            xxxxxxxxxxxxxxxxxxxxxxxxxxxxxxxxxxxxxxxxxxxxxxxxxxxxxxxxxxxxxx
            x                                               MD Data:     x
            x                                                            x
            x              time :      0.010000                   ps     x
            x                                                            x
            x   Potential Energy:     -0.000009                   eV     x
            x   Kinetic   Energy:      1.090617                   eV     x
            x   Total     Energy:      1.090608                   eV     x
            x   Hamilt    Energy:      1.090608                   eV     x
            x                                                            x
            x        Temperature:     85.226193                    K     x
            x      T/=0 Pressure:      0.000000                  GPa     x
            xxxxxxxxxxxxxxxxxxxxxxxxxxxxxxxxxxxxxxxxxxxxxxxxxxxxxxxxxxxxxx


--------------------------------------------------------------------------------
 ... finished MD iteration          2

================================================================================
 Starting MD iteration          3 ...
================================================================================

            xxxxxxxxxxxxxxxxxxxxxxxxxxxxxxxxxxxxxxxxxxxxxxxxxxxxxxxxxxxxxx
            x                                               MD Data:     x
            x                                                            x
            x              time :      0.015000                   ps     x
            x                                                            x
            x   Potential Energy:     -0.000009                   eV     x
            x   Kinetic   Energy:      1.084494                   eV     x
            x   Total     Energy:      1.084484                   eV     x
            x   Hamilt    Energy:      1.084484                   eV     x
            x                                                            x
            x        Temperature:     84.747648                    K     x
            x      T/=0 Pressure:      0.000000                  GPa     x
            xxxxxxxxxxxxxxxxxxxxxxxxxxxxxxxxxxxxxxxxxxxxxxxxxxxxxxxxxxxxxx


--------------------------------------------------------------------------------
 ... finished MD iteration          3

================================================================================
 Starting MD iteration          4 ...
================================================================================

            xxxxxxxxxxxxxxxxxxxxxxxxxxxxxxxxxxxxxxxxxxxxxxxxxxxxxxxxxxxxxx
            x                                               MD Data:     x
            x                                                            x
            x              time :      0.020000                   ps     x
            x                                                            x
            x   Potential Energy:     -0.000009                   eV     x
            x   Kinetic   Energy:      1.092765                   eV     x
            x   Total     Energy:      1.092756                   eV     x
            x   Hamilt    Energy:      1.092756                   eV     x
            x                                                            x
            x        Temperature:     85.394011                    K     x
            x      T/=0 Pressure:      0.000000                  GPa     x
            xxxxxxxxxxxxxxxxxxxxxxxxxxxxxxxxxxxxxxxxxxxxxxxxxxxxxxxxxxxxxx


--------------------------------------------------------------------------------
 ... finished MD iteration          4

================================================================================
 Starting MD iteration          5 ...
================================================================================

            xxxxxxxxxxxxxxxxxxxxxxxxxxxxxxxxxxxxxxxxxxxxxxxxxxxxxxxxxxxxxx
            x                                               MD Data:     x
            x                                                            x
            x              time :      0.025000                   ps     x
            x                                                            x
            x   Potential Energy:     -0.000009                   eV     x
            x   Kinetic   Energy:      1.169644                   eV     x
            x   Total     Energy:      1.169635                   eV     x
            x   Hamilt    Energy:      1.169635                   eV     x
            x                                                            x
            x        Temperature:     91.401718                    K     x
            x      T/=0 Pressure:      0.000000                  GPa     x
            xxxxxxxxxxxxxxxxxxxxxxxxxxxxxxxxxxxxxxxxxxxxxxxxxxxxxxxxxxxxxx


--------------------------------------------------------------------------------
 ... finished MD iteration          5

================================================================================
 Starting MD iteration          6 ...
================================================================================

            xxxxxxxxxxxxxxxxxxxxxxxxxxxxxxxxxxxxxxxxxxxxxxxxxxxxxxxxxxxxxx
            x                                               MD Data:     x
            x                                                            x
            x              time :      0.030000                   ps     x
            x                                                            x
            x   Potential Energy:     -0.000009                   eV     x
            x   Kinetic   Energy:      1.183595                   eV     x
            x   Total     Energy:      1.183586                   eV     x
            x   Hamilt    Energy:      1.183586                   eV     x
            x                                                            x
            x        Temperature:     92.491907                    K     x
            x      T/=0 Pressure:      0.000000                  GPa     x
            xxxxxxxxxxxxxxxxxxxxxxxxxxxxxxxxxxxxxxxxxxxxxxxxxxxxxxxxxxxxxx


--------------------------------------------------------------------------------
 ... finished MD iteration          6

================================================================================
 Starting MD iteration          7 ...
================================================================================

            xxxxxxxxxxxxxxxxxxxxxxxxxxxxxxxxxxxxxxxxxxxxxxxxxxxxxxxxxxxxxx
            x                                               MD Data:     x
            x                                                            x
            x              time :      0.035000                   ps     x
            x                                                            x
            x   Potential Energy:     -0.000009                   eV     x
            x   Kinetic   Energy:      1.104375                   eV     x
            x   Total     Energy:      1.104366                   eV     x
            x   Hamilt    Energy:      1.104366                   eV     x
            x                                                            x
            x        Temperature:     86.301293                    K     x
            x      T/=0 Pressure:      0.000000                  GPa     x
            xxxxxxxxxxxxxxxxxxxxxxxxxxxxxxxxxxxxxxxxxxxxxxxxxxxxxxxxxxxxxx


--------------------------------------------------------------------------------
 ... finished MD iteration          7

================================================================================
 Starting MD iteration          8 ...
================================================================================

            xxxxxxxxxxxxxxxxxxxxxxxxxxxxxxxxxxxxxxxxxxxxxxxxxxxxxxxxxxxxxx
            x                                               MD Data:     x
            x                                                            x
            x              time :      0.040000                   ps     x
            x                                                            x
            x   Potential Energy:     -0.000009                   eV     x
            x   Kinetic   Energy:      1.128687                   eV     x
            x   Total     Energy:      1.128677                   eV     x
            x   Hamilt    Energy:      1.128677                   eV     x
            x                                                            x
            x        Temperature:     88.201107                    K     x
            x      T/=0 Pressure:      0.000000                  GPa     x
            xxxxxxxxxxxxxxxxxxxxxxxxxxxxxxxxxxxxxxxxxxxxxxxxxxxxxxxxxxxxxx


--------------------------------------------------------------------------------
 ... finished MD iteration          8

================================================================================
 Starting MD iteration          9 ...
================================================================================

            xxxxxxxxxxxxxxxxxxxxxxxxxxxxxxxxxxxxxxxxxxxxxxxxxxxxxxxxxxxxxx
            x                                               MD Data:     x
            x                                                            x
            x              time :      0.045000                   ps     x
            x                                                            x
            x   Potential Energy:     -0.000009                   eV     x
            x   Kinetic   Energy:      1.149552                   eV     x
            x   Total     Energy:      1.149543                   eV     x
            x   Hamilt    Energy:      1.149543                   eV     x
            x                                                            x
            x        Temperature:     89.831618                    K     x
            x      T/=0 Pressure:      0.000000                  GPa     x
            xxxxxxxxxxxxxxxxxxxxxxxxxxxxxxxxxxxxxxxxxxxxxxxxxxxxxxxxxxxxxx


--------------------------------------------------------------------------------
 ... finished MD iteration          9

================================================================================
 Starting MD iteration         10 ...
================================================================================

            xxxxxxxxxxxxxxxxxxxxxxxxxxxxxxxxxxxxxxxxxxxxxxxxxxxxxxxxxxxxxx
            x                                               MD Data:     x
            x                                                            x
            x              time :      0.050000                   ps     x
            x                                                            x
            x   Potential Energy:     -0.000009                   eV     x
            x   Kinetic   Energy:      1.159277                   eV     x
            x   Total     Energy:      1.159268                   eV     x
            x   Hamilt    Energy:      1.159268                   eV     x
            x                                                            x
            x        Temperature:     90.591580                    K     x
            x      T/=0 Pressure:      0.000000                  GPa     x
            xxxxxxxxxxxxxxxxxxxxxxxxxxxxxxxxxxxxxxxxxxxxxxxxxxxxxxxxxxxxxx


--------------------------------------------------------------------------------
 ... finished MD iteration         10
 Finished MD

 ************************************** Forces **************************************
 *                                                                                  *
 *                           Cartesian components (eV/A)                            *
 * -------------------------------------------------------------------------------- *
 *                         x                    y                    z              *
 *                                                                                  *
 * Ar              1      0.36554             -0.60828              0.92175         *
 * Ar              2     -0.62514             -0.24781             -0.05548         *
 * Ar              3     -0.29686             -1.11096             -0.05744         *
 * Ar              4     -0.07551             -0.20669              0.45410         *
 * Ar              5     -0.18684             -0.02222              0.23938         *
 *                                                                                  *
 ************************************************************************************

 ***************** Stress Tensor *****************
 *                                               *
 *          Cartesian components (GPa)           *
 * --------------------------------------------- *
 *             x             y             z     *
 *                                               *
 *  x     -0.000001      0.000000     -0.000000  *
 *  y      0.000000     -0.000001      0.000000  *
 *  z     -0.000000      0.000000     -0.000001  *
 *                                               *
 *  Pressure:    0.0000                          *
 *                                               *
 *************************************************
Initialisation time =     18.88 s
Calculation time    =      0.12 s
Finalisation time   =      0.00 s
Total time          =     19.00 s
Peak Memory Use     = 583888 kB
